 Gaussian 16, Revision A.03,
 Gaussian 16:  ES64L-G16RevA.03 25-Dec-2016

 ----------------------------------------------------------------------
 # IRC=(CalcFC,ReCalc=4,HPC,StepSize=5,MaxPoints=200) SCRF B3LYP/GenECP
  EmpiricalDispersion=GD3BJ
 ----------------------------------------------------------------------

 Found TS at B3LYP-D3(BJ)/(6-31G* for H and C, 6-31+G* for N, ma-SDD fo
 r I) with IEFPCM water
 ----------------------------------------------------------------------
 Symbolic Z-matrix:
 Charge =  0 Multiplicity = 1

 SCF Done:  E(RB3LYP) =  -107.889491799     A.U. after   10 cycles
 SCF Done:  E(RB3LYP) =  -107.889560478     A.U. after    9 cycles
 SCF Done:  E(RB3LYP) =  -107.889758144     A.U. after    9 cycles
 SCF Done:  E(RB3LYP) =  -107.890069990     A.U. after    9 cycles
 SCF Done:  E(RB3LYP) =  -107.890479917     A.U. after    9 cycles
 SCF Done:  E(RB3LYP) =  -107.890971641     A.U. after    9 cycles
 SCF Done:  E(RB3LYP) =  -107.891528333     A.U. after    9 cycles
 SCF Done:  E(RB3LYP) =  -107.892133734     A.U. after    9 cycles
 SCF Done:  E(RB3LYP) =  -107.892771363     A.U. after    9 cycles
 SCF Done:  E(RB3LYP) =  -107.893425312     A.U. after    9 cycles
 SCF Done:  E(RB3LYP) =  -107.939163484     A.U. after    7 cycles
 SCF Done:  E(RB3LYP) =  -107.939218857     A.U. after    7 cycles
 SCF Done:  E(RB3LYP) =  -107.939269164     A.U. after    7 cycles
 SCF Done:  E(RB3LYP) =  -107.939314987     A.U. after    7 cycles
 SCF Done:  E(RB3LYP) =  -107.939356908     A.U. after    7 cycles
 SCF Done:  E(RB3LYP) =  -107.939395006     A.U. after    7 cycles
 SCF Done:  E(RB3LYP) =  -107.939428925     A.U. after    7 cycles
 SCF Done:  E(RB3LYP) =  -107.939458633     A.U. after    7 cycles
 SCF Done:  E(RB3LYP) =  -107.939484403     A.U. after    7 cycles
 SCF Done:  E(RB3LYP) =  -107.939506649     A.U. after    7 cycles

                          Input orientation:
 ---------------------------------------------------------------------
 Center     Atomic      Atomic             Coordinates (Angstroms)
 Number     Number       Type             X           Y           Z
 ---------------------------------------------------------------------
      1          1           0        4.725834    0.669318    0.649020
      2          1           0        4.694574    0.224556   -0.939707
      3          1           0        4.701626   -0.929063    0.240152
      4          1           0        2.464089   -0.727952   -0.700633
      5          1           0        2.495842   -0.241621    1.019356
      6          1           0        2.488664    1.005185   -0.262476
      7          7           0        4.330057   -0.007549   -0.010575
      8          6           0        2.825104    0.008478    0.013440
      9         53           0       -0.916256    0.000028   -0.000149
 ---------------------------------------------------------------------

 Alpha  occ. eigenvalues --  -14.46632 -10.24500  -1.01769  -0.73776  -0.60260
 Alpha  occ. eigenvalues --   -0.59949  -0.59946  -0.50806  -0.43140  -0.43129
 Alpha  occ. eigenvalues --   -0.21938  -0.21937  -0.21862
 Alpha virt. eigenvalues --   -0.01307   0.01166   0.01170   0.01788   0.02926
 Alpha virt. eigenvalues --    0.06953   0.06955   0.07402   0.08517   0.08521
 Alpha virt. eigenvalues --    0.10733   0.14372   0.14484   0.14509   0.17503

 Mulliken charges:
               1
     1  H    0.503922
     2  H    0.503896
     3  H    0.503890
     4  H    0.248131
     5  H    0.247525
     6  H    0.247710
     7  N   -0.922378
     8  C   -0.334534
     9  I   -0.998162
 Sum of Mulliken charges =  -0.00000

 Dipole moment (field-independent basis, Debye):
    X=             24.3860    Y=             -0.0298    Z=             -0.0401  Tot=             24.3860
 Quadrupole moment (field-independent basis, Debye-Ang):
   XX=             43.1859   YY=            -37.1018   ZZ=            -37.1022
   XY=             -0.1388   XZ=             -0.1927   YZ=              0.0004

  Exact polarizability:   0.000   0.000   0.000   0.000   0.000   0.000
 Approx polarizability:  48.173  -0.003  42.283  -0.001   0.002  42.281

 Normal termination of Gaussian 16 at Mon Jul 18 15:40:08 2022.
