 Gaussian 16, Revision C.02,
 Gaussian 16:  ES64L-G16RevC.02  7-Dec-2021

 ----------------------------------------------------------------------
 #P IRC=(HPC,CalcFC,ReCalc=4,StepSize=5,MaxPoints=200,Reverse) B3LYP/6-
 311G* EmpiricalDispersion=GD3BJ
 ----------------------------------------------------------------------

 -------------------
 Title Card Required
 -------------------
 Symbolic Z-matrix:
 Charge =  0 Multiplicity = 1

 SCF Done:  E(RB3LYP) =  -155.963052918     A.U. after   12 cycles
 SCF Done:  E(RB3LYP) =  -155.963107216     A.U. after   11 cycles
 SCF Done:  E(RB3LYP) =  -155.963269659     A.U. after   11 cycles
 SCF Done:  E(RB3LYP) =  -155.963539353     A.U. after   10 cycles
 SCF Done:  E(RB3LYP) =  -155.963914684     A.U. after   11 cycles
 SCF Done:  E(RB3LYP) =  -155.964393674     A.U. after   10 cycles
 SCF Done:  E(RB3LYP) =  -155.964973723     A.U. after   11 cycles
 SCF Done:  E(RB3LYP) =  -155.965652123     A.U. after   10 cycles
 SCF Done:  E(RB3LYP) =  -155.966425604     A.U. after   11 cycles
 SCF Done:  E(RB3LYP) =  -155.967290617     A.U. after   10 cycles
 SCF Done:  E(RB3LYP) =  -156.016250152     A.U. after    8 cycles
 SCF Done:  E(RB3LYP) =  -156.016453877     A.U. after    9 cycles
 SCF Done:  E(RB3LYP) =  -156.016634171     A.U. after    8 cycles
 SCF Done:  E(RB3LYP) =  -156.016791516     A.U. after    9 cycles
 SCF Done:  E(RB3LYP) =  -156.016926192     A.U. after    8 cycles
 SCF Done:  E(RB3LYP) =  -156.017038470     A.U. after    9 cycles
 SCF Done:  E(RB3LYP) =  -156.017128483     A.U. after    8 cycles
 SCF Done:  E(RB3LYP) =  -156.017196470     A.U. after    9 cycles
 SCF Done:  E(RB3LYP) =  -156.017242534     A.U. after    8 cycles
 SCF Done:  E(RB3LYP) =  -156.017266789     A.U. after    9 cycles

                          Input orientation:
 ---------------------------------------------------------------------
 Center     Atomic      Atomic             Coordinates (Angstroms)
 Number     Number       Type             X           Y           Z
 ---------------------------------------------------------------------
      1          6           0       -0.784562   -0.725355    0.050951
      2          1           0       -1.183534   -1.164793    0.970381
      3          1           0       -1.302492   -1.174022   -0.802313
      4          6           0       -0.667605    0.789303    0.039355
      5          1           0       -1.412787    1.577282    0.082766
      6          6           0        0.667596    0.789310   -0.039358
      7          1           0        1.412769    1.577297   -0.082772
      8          6           0        0.784570   -0.725347   -0.050948
      9          1           0        1.183547   -1.164783   -0.970377
     10          1           0        1.302504   -1.174005    0.802317
 ---------------------------------------------------------------------

 Alpha  occ. eigenvalues --  -10.17132 -10.17117 -10.16769 -10.16691  -0.85671
 Alpha  occ. eigenvalues --   -0.65814  -0.64467  -0.51732  -0.50152  -0.45981
 Alpha  occ. eigenvalues --   -0.38311  -0.36421  -0.33094  -0.32075  -0.25244
 Alpha virt. eigenvalues --    0.01597   0.05475   0.08107   0.08437   0.08974
 Alpha virt. eigenvalues --    0.10986   0.15571   0.16234   0.17910   0.28563
 Alpha virt. eigenvalues --    0.30698   0.32993   0.33877   0.35586   0.35942

 Mulliken charges:
               1
     1  C   -0.417809
     2  H    0.207256
     3  H    0.206729
     4  C   -0.173747
     5  H    0.177571
     6  C   -0.173747
     7  H    0.177571
     8  C   -0.417809
     9  H    0.207256
    10  H    0.206729
 Sum of Mulliken charges =   0.00000

 Dipole moment (field-independent basis, Debye):
    X=              0.0000    Y=             -0.1218    Z=              0.0000  Tot=              0.1218
 Quadrupole moment (field-independent basis, Debye-Ang):
   XX=            -24.3588   YY=            -24.7687   ZZ=            -26.1842
   XY=              0.0000   XZ=             -0.1091   YZ=             -0.0000

  Exact polarizability:       0.000       0.000       0.000       0.000       0.000       0.000
 Approx polarizability:      76.850       0.000      57.483      -1.956      -0.000      43.860

 Normal termination of Gaussian 16 at Thu Apr  6 11:07:53 2023.
