 Gaussian 16, Revision C.02,
 Gaussian 16:  ES64L-G16RevC.02  7-Dec-2021

 ----------------------------------------------------------------------
 #P IRC=(HPC,CalcFC,ReCalc=4,StepSize=5,MaxPoints=200,Forward) B3LYP/6-
 311G* EmpiricalDispersion=GD3BJ
 ----------------------------------------------------------------------

 -------------------
 Title Card Required
 -------------------
 Symbolic Z-matrix:
 Charge =  0 Multiplicity = 1

 SCF Done:  E(RB3LYP) =  -155.963052918     A.U. after   12 cycles
 SCF Done:  E(RB3LYP) =  -155.963107283     A.U. after   10 cycles
 SCF Done:  E(RB3LYP) =  -155.963270083     A.U. after   11 cycles
 SCF Done:  E(RB3LYP) =  -155.963540656     A.U. after   11 cycles
 SCF Done:  E(RB3LYP) =  -155.963917486     A.U. after   11 cycles
 SCF Done:  E(RB3LYP) =  -155.964398525     A.U. after   11 cycles
 SCF Done:  E(RB3LYP) =  -155.964980899     A.U. after   11 cycles
 SCF Done:  E(RB3LYP) =  -155.965661409     A.U. after   11 cycles
 SCF Done:  E(RB3LYP) =  -155.966436091     A.U. after   11 cycles
 SCF Done:  E(RB3LYP) =  -155.967300547     A.U. after   11 cycles
 SCF Done:  E(RB3LYP) =  -156.032897786     A.U. after    8 cycles
 SCF Done:  E(RB3LYP) =  -156.033037303     A.U. after    8 cycles
 SCF Done:  E(RB3LYP) =  -156.033158794     A.U. after    8 cycles
 SCF Done:  E(RB3LYP) =  -156.033262655     A.U. after    8 cycles
 SCF Done:  E(RB3LYP) =  -156.033349246     A.U. after    8 cycles
 SCF Done:  E(RB3LYP) =  -156.033418987     A.U. after    8 cycles
 SCF Done:  E(RB3LYP) =  -156.033472293     A.U. after    8 cycles
 SCF Done:  E(RB3LYP) =  -156.033509674     A.U. after    8 cycles
 SCF Done:  E(RB3LYP) =  -156.033531828     A.U. after    8 cycles
 SCF Done:  E(RB3LYP) =  -156.033540588     A.U. after    9 cycles

                          Input orientation:
 ---------------------------------------------------------------------
 Center     Atomic      Atomic             Coordinates (Angstroms)
 Number     Number       Type             X           Y           Z
 ---------------------------------------------------------------------
      1          6           0       -1.535137   -0.502606    0.140703
      2          1           0       -1.155135   -1.448545    0.514125
      3          1           0       -2.604731   -0.436373   -0.025343
      4          6           0       -0.728897    0.536573   -0.085496
      5          1           0       -1.169840    1.480448   -0.402994
      6          6           0        0.728891    0.536581    0.085494
      7          1           0        1.169823    1.480462    0.402988
      8          6           0        1.535143   -0.502590   -0.140701
      9          1           0        1.155152   -1.448534   -0.514120
     10          1           0        2.604736   -0.436344    0.025344
 ---------------------------------------------------------------------

 Alpha  occ. eigenvalues --  -10.17816 -10.17785 -10.16746 -10.16745  -0.80897
 Alpha  occ. eigenvalues --   -0.73302  -0.62224  -0.53454  -0.49511  -0.44251
 Alpha  occ. eigenvalues --   -0.43079  -0.37541  -0.35293  -0.31370  -0.24190
 Alpha virt. eigenvalues --   -0.03226   0.04907   0.06718   0.07073   0.08329
 Alpha virt. eigenvalues --    0.11612   0.13007   0.14492   0.26020   0.27426
 Alpha virt. eigenvalues --    0.32243   0.32554   0.34238   0.38999   0.39775

 Mulliken charges:
               1
     1  C   -0.416796
     2  H    0.203844
     3  H    0.205065
     4  C   -0.183849
     5  H    0.191736
     6  C   -0.183849
     7  H    0.191736
     8  C   -0.416796
     9  H    0.203844
    10  H    0.205065
 Sum of Mulliken charges =  -0.00000

 Dipole moment (field-independent basis, Debye):
    X=             -0.0000    Y=              0.1342    Z=             -0.0000  Tot=              0.1342
 Quadrupole moment (field-independent basis, Debye-Ang):
   XX=            -23.2790   YY=            -23.2212   ZZ=            -28.2960
   XY=              0.0000   XZ=              0.6340   YZ=             -0.0000

  Exact polarizability:       0.000       0.000       0.000       0.000       0.000       0.000
 Approx polarizability:      88.160       0.000      73.421      -3.724      -0.000      33.530

 Normal termination of Gaussian 16 at Thu Apr  6 10:24:42 2023.
