 Gaussian 16, Revision B.01,
 Gaussian 16:  EM64W-G16RevB.01 16-Dec-2017

 ----------------------------------------------------------------------
 # IRC=(CalcFC,LQA,StepSize=15,MaxPoints=50) SCRF B3LYP/GenECP Empirica
 lDispersion=GD3BJ
 ----------------------------------------------------------------------

 Found TS at B3LYP-D3(BJ)/(6-31G* for H and C, 6-31+G* for N, ma-SDD fo
 r I) with IEFPCM water
 ----------------------------------------------------------------------
 Symbolic Z-matrix:
 Charge =  0 Multiplicity = 1

 SCF Done:  E(RB3LYP) =  -107.889491799     A.U. after   10 cycles
 SCF Done:  E(RB3LYP) =  -107.890066568     A.U. after   10 cycles
 SCF Done:  E(RB3LYP) =  -107.891513867     A.U. after    9 cycles
 SCF Done:  E(RB3LYP) =  -107.893410443     A.U. after    9 cycles
 SCF Done:  E(RB3LYP) =  -107.895313586     A.U. after    9 cycles
 SCF Done:  E(RB3LYP) =  -107.896847815     A.U. after    9 cycles
 SCF Done:  E(RB3LYP) =  -107.897698804     A.U. after    9 cycles
 SCF Done:  E(RB3LYP) =  -107.896297348     A.U. after    9 cycles
 SCF Done:  E(RB3LYP) =  -107.898552735     A.U. after    9 cycles
 SCF Done:  E(RB3LYP) =  -107.898986117     A.U. after    8 cycles
 SCF Done:  E(RB3LYP) =  -107.939022088     A.U. after    8 cycles
 SCF Done:  E(RB3LYP) =  -107.939176912     A.U. after    8 cycles
 SCF Done:  E(RB3LYP) =  -107.939244327     A.U. after    8 cycles
 SCF Done:  E(RB3LYP) =  -107.939368080     A.U. after    8 cycles
 SCF Done:  E(RB3LYP) =  -107.939439048     A.U. after    8 cycles
 SCF Done:  E(RB3LYP) =  -107.939507373     A.U. after    8 cycles
 SCF Done:  E(RB3LYP) =  -107.939504824     A.U. after    8 cycles
 SCF Done:  E(RB3LYP) =  -107.939453864     A.U. after    8 cycles
 SCF Done:  E(RB3LYP) =  -107.939552343     A.U. after    8 cycles
 SCF Done:  E(RB3LYP) =  -107.939547535     A.U. after    8 cycles

                          Input orientation:
 ---------------------------------------------------------------------
 Center     Atomic      Atomic             Coordinates (Angstroms)
 Number     Number       Type             X           Y           Z
 ---------------------------------------------------------------------
      1          1           0        4.769715    0.820958    0.496778
      2          1           0        4.837662   -0.054496   -0.905073
      3          1           0        4.748528   -0.831568    0.552275
      4          1           0        2.581472   -0.915438   -0.556037
      5          1           0        2.508187    0.041223    0.958407
      6          1           0        2.604374    0.876949   -0.624596
      7          7           0        4.408419   -0.017616    0.026696
      8          6           0        2.905754   -0.002557   -0.055198
      9         53           0       -0.936348    0.002681    0.002895
 ---------------------------------------------------------------------

 Alpha  occ. eigenvalues --  -14.46733 -10.24669  -1.01750  -0.73773  -0.60265
 Alpha  occ. eigenvalues --   -0.59944  -0.59928  -0.50827  -0.43174  -0.43161
 Alpha  occ. eigenvalues --   -0.21946  -0.21946  -0.21883
 Alpha virt. eigenvalues --   -0.01325   0.01169   0.01174   0.01757   0.02796
 Alpha virt. eigenvalues --    0.06880   0.06887   0.07387   0.08502   0.08523
 Alpha virt. eigenvalues --    0.10626   0.14254   0.14334   0.14430   0.17368

 Mulliken charges:
               1
     1  H    0.504142
     2  H    0.504270
     3  H    0.504127
     4  H    0.247063
     5  H    0.248776
     6  H    0.246760
     7  N   -0.921295
     8  C   -0.334349
     9  I   -0.999495
 Sum of Mulliken charges =   0.00000

 Dipole moment (field-independent basis, Debye):
    X=             24.8676    Y=             -0.0912    Z=              0.0795  Tot=             24.8679
 Quadrupole moment (field-independent basis, Debye-Ang):
   XX=             46.3475   YY=            -37.0995   ZZ=            -37.0893
   XY=             -0.3306   XZ=              0.4860   YZ=             -0.0011

  Exact polarizability:   0.000   0.000   0.000   0.000   0.000   0.000
 Approx polarizability:  47.386  -0.003  42.139  -0.009   0.005  42.145

 Normal termination of Gaussian 16 at Sat Jul 16 10:14:29 2022.
